 Gaussian 16, Revision A.03,
 Gaussian 16:  ES64L-G16RevA.03 25-Dec-2016

 -------------------------------
 #p wB97XD/6-31++G(d,p) opt freq
 -------------------------------

 -----
 aaaaa
 -----
 Symbolic Z-matrix:
 Charge =  0 Multiplicity = 1

 SCF Done:  E(RwB97XD) =  -456.860289081     A.U. after   13 cycles
 SCF Done:  E(RwB97XD) =  -456.860473745     A.U. after   12 cycles
 SCF Done:  E(RwB97XD) =  -456.860396346     A.U. after   11 cycles
 SCF Done:  E(RwB97XD) =  -456.860491178     A.U. after   11 cycles
 SCF Done:  E(RwB97XD) =  -456.860510994     A.U. after   11 cycles
 SCF Done:  E(RwB97XD) =  -456.860511011     A.U. after    9 cycles
 SCF Done:  E(RwB97XD) =  -456.860515270     A.U. after   10 cycles
 SCF Done:  E(RwB97XD) =  -456.860519872     A.U. after   11 cycles
 SCF Done:  E(RwB97XD) =  -456.860520254     A.U. after    9 cycles
 SCF Done:  E(RwB97XD) =  -456.860520525     A.U. after    9 cycles
 Optimization completed.
    -- Stationary point found.
 Normal termination of Gaussian 16 at Wed Jun  8 18:13:11 2022.

 ----------------------------------------------------------------------
 #P Geom=AllCheck Guess=TCheck SCRF=Check GenChk RwB97XD/6-31++G(d,p) F
 req
 ----------------------------------------------------------------------

 Structure from the checkpoint file:  "/tmp/Gau-138018.chk"
 -----
 aaaaa
 -----
 Charge =  0 Multiplicity = 1

                         Standard orientation:
 ---------------------------------------------------------------------
 Center     Atomic      Atomic             Coordinates (Angstroms)
 Number     Number       Type             X           Y           Z
 ---------------------------------------------------------------------
      1          6           0       -1.620510   -0.021131    0.036781
      2          6           0       -0.707951    1.121060   -0.345285
      3          6           0        0.686090    1.085226    0.267476
      4          6           0        1.489613   -0.105640   -0.192015
      5          8           0       -2.602130   -0.349083   -0.584608
      6          8           0       -1.262559   -0.620330    1.190959
      7          8           0        1.138141   -0.914647   -1.018408
      8          8           0        2.684653   -0.169705    0.423739
      9          1           0       -0.664256    1.132249   -1.436091
     10          1           0       -1.218133    2.040141   -0.036074
     11          1           0        0.648348    1.070233    1.360147
     12          1           0        1.243576    1.985873   -0.011730
     13          1           0       -1.902134   -1.328083    1.351345
     14          1           0        3.144304   -0.947386    0.077203
 ---------------------------------------------------------------------

 SCF Done:  E(RwB97XD) =  -456.860520525     A.U. after    1 cycles

 The electronic state is 1-A.
 Alpha  occ. eigenvalues --  -19.34271 -19.33851 -19.28443 -19.27500 -10.45401
 Alpha  occ. eigenvalues --  -10.44840 -10.33546 -10.33180  -1.23295  -1.22640
 Alpha  occ. eigenvalues --   -1.13834  -1.13071  -0.92510  -0.82401  -0.73310
 Alpha  occ. eigenvalues --   -0.70017  -0.61714  -0.60101  -0.59413  -0.57697
 Alpha  occ. eigenvalues --   -0.56423  -0.55585  -0.51135  -0.50587  -0.48763
 Alpha  occ. eigenvalues --   -0.47599  -0.46596  -0.42441  -0.41508  -0.38086
 Alpha  occ. eigenvalues --   -0.37080
 Alpha virt. eigenvalues --    0.03543   0.04834   0.05023   0.06101   0.06800
 Alpha virt. eigenvalues --    0.07352   0.08280   0.09647   0.11965   0.12311
 Alpha virt. eigenvalues --    0.12487   0.14082   0.14994   0.15644   0.16333

 Mulliken charges:
               1
     1  C    0.324779
     2  C   -0.284880
     3  C   -0.316734
     4  C    0.386887
     5  O   -0.437265
     6  O   -0.449864
     7  O   -0.444702
     8  O   -0.421924
     9  H    0.225490
    10  H    0.193874
    11  H    0.227216
    12  H    0.203941
    13  H    0.401080
    14  H    0.392102
 Sum of Mulliken charges =  -0.00000

 Dipole moment (field-independent basis, Debye):
    X=              2.0553    Y=              1.4439    Z=              2.1052  Tot=              3.2773
 Quadrupole moment (field-independent basis, Debye-Ang):
   XX=            -48.1115   YY=            -41.2256   ZZ=            -48.7236
   XY=             -1.8691   XZ=             -5.5946   YZ=             -4.5174

  Exact polarizability:  65.676   1.915  56.009   6.619   1.531  54.021
 Approx polarizability:  64.427   3.727  60.196  10.021   4.214  63.091

                      1                      2                      3
                      A                      A                      A
 Frequencies --     35.0875                63.6140                85.9898
 Red. masses --      7.8016                 9.7379                 5.9913
 Frc consts  --      0.0057                 0.0232                 0.0261
 IR Inten    --      0.3346                 1.1515                 1.4116

                      4                      5                      6
                      A                      A                      A
 Frequencies --    230.3445               281.5932               391.6359
 Red. masses --      2.5121                 3.5707                 5.7004
 Frc consts  --      0.0785                 0.1668                 0.5151
 IR Inten    --      1.7187                 2.2218                 1.4183

                      7                      8                      9
                      A                      A                      A
 Frequencies --    501.8474               514.2163               563.6674
 Red. masses --      1.7547                 1.7457                 3.6721
 Frc consts  --      0.2604                 0.2720                 0.6874
 IR Inten    --     19.5241                 9.8579                49.6348

                     10                     11                     12
                      A                      A                      A
 Frequencies --    597.7968               639.4487               667.8921
 Red. masses --      2.3019                 2.3221                 1.8279
 Frc consts  --      0.4847                 0.5594                 0.4804
 IR Inten    --     94.8640                48.5044                82.8786

                     13                     14                     15
                      A                      A                      A
 Frequencies --    688.6556               827.0331               836.9895
 Red. masses --      1.8208                 3.6391                 2.8565
 Frc consts  --      0.5088                 1.4665                 1.1790
 IR Inten    --     42.9159                15.0467                22.3286

                     16                     17                     18
                      A                      A                      A
 Frequencies --    963.8015               999.2265              1087.1627
 Red. masses --      2.6523                 1.9993                 2.3222
 Frc consts  --      1.4516                 1.1761                 1.6171
 IR Inten    --     29.3537                19.0872                 3.9717

                     19                     20                     21
                      A                      A                      A
 Frequencies --   1184.8713              1190.4850              1243.8137
 Red. masses --      1.7694                 2.0469                 1.3608
 Frc consts  --      1.4636                 1.7092                 1.2404
 IR Inten    --    278.6658               112.3399               102.0882

                     22                     23                     24
                      A                      A                      A
 Frequencies --   1274.4914              1321.5590              1365.2437
 Red. masses --      1.2984                 1.5120                 1.7223
 Frc consts  --      1.2426                 1.5558                 1.8913
 IR Inten    --      7.1324                10.4079                45.1057

                     25                     26                     27
                      A                      A                      A
 Frequencies --   1404.9162              1449.5160              1465.7638
 Red. masses --      2.4129                 2.3380                 1.0982
 Frc consts  --      2.8061                 2.8943                 1.3902
 IR Inten    --     56.3074                95.1675                 3.4192

                     28                     29                     30
                      A                      A                      A
 Frequencies --   1470.8873              1863.3902              1870.9920
 Red. masses --      1.1172                10.1253                10.1875
 Frc consts  --      1.4240                20.7141                21.0116
 IR Inten    --     30.9953               105.5607               574.4110

                     31                     32                     33
                      A                      A                      A
 Frequencies --   3087.1921              3094.6225              3144.2415
 Red. masses --      1.0655                 1.0661                 1.0999
 Frc consts  --      5.9832                 6.0154                 6.4064
 IR Inten    --     10.8122                 4.5426                 0.6728

                     34                     35                     36
                      A                      A                      A
 Frequencies --   3163.7361              3844.6274              3847.6194
 Red. masses --      1.0971                 1.0646                 1.0646
 Frc consts  --      6.4699                 9.2711                 9.2859
 IR Inten    --      1.7967                80.1626                85.8136

 - Thermochemistry -
 -------------------
 Temperature   298.150 Kelvin.  Pressure   1.00000 Atm.
 Atom     1 has atomic number  6 and mass  12.00000

 Molecular mass:   118.02661 amu.
 Principal axes and moments of inertia in atomic units:
                           1         2         3
     Eigenvalues --   430.687531474.046711507.26806
           X            1.00000  -0.00195  -0.00107
           Y            0.00165   0.97344  -0.22892
           Z            0.00149   0.22892   0.97344
 This molecule is an asymmetric top.
 Rotational symmetry number  1.
 Rotational temperatures (Kelvin)      0.20111     0.05876     0.05746
 Rotational constants (GHZ):           4.19037     1.22434     1.19736
 Zero-point vibrational energy     282701.3 (Joules/Mol)
                                   67.56724 (Kcal/Mol)
 Warning -- explicit consideration of  10 degrees of freedom as
           vibrations may cause significant error
 Vibrational temperatures:     50.48    91.53   123.72   331.41   405.15
          (Kelvin)            563.48   722.05   739.84   810.99   860.10
                              920.02   960.95   990.82  1189.92  1204.24
                             1386.70  1437.66  1564.18  1704.77  1712.84
                             1789.57  1833.71  1901.43  1964.28  2021.36
                             2085.53  2108.91  2116.28  2681.00  2691.94
                             4441.78  4452.47  4523.86  4551.91  5531.56
                             5535.87

 Zero-point correction=                           0.107675 (Hartree/Particle)
 Thermal correction to Energy=                    0.115733
 Thermal correction to Enthalpy=                  0.116677
 Thermal correction to Gibbs Free Energy=         0.073553
 Sum of electronic and zero-point Energies=           -456.752845
 Sum of electronic and thermal Energies=              -456.744788
 Sum of electronic and thermal Enthalpies=            -456.743844
 Sum of electronic and thermal Free Energies=         -456.786967

                     E (Thermal)             CV                S
                      KCal/Mol        Cal/Mol-Kelvin    Cal/Mol-Kelvin
 Total                   72.623             27.878             90.761
 Electronic               0.000              0.000              0.000
 Translational            0.889              2.981             40.212
 Rotational               0.889              2.981             28.350
 Vibrational             70.846             21.916             22.199
 Vibration     1          0.594              1.982              5.519
 Vibration     2          0.597              1.972              4.342
 Vibration     3          0.601              1.959              3.749
 Vibration     4          0.652              1.795              1.876
 Vibration     5          0.681              1.708              1.524
 Vibration     6          0.759              1.488              0.994
 Vibration     7          0.857              1.246              0.654
 Vibration     8          0.869              1.218              0.624
 Vibration     9          0.919              1.110              0.517
 Vibration    10          0.956              1.036              0.453

                           ! Non-Optimized Parameters !
 Normal termination of Gaussian 16 at Wed Jun  8 18:14:31 2022.
