 Gaussian 16, Revision A.03,
 Gaussian 16:  ES64L-G16RevA.03 25-Dec-2016

 -------------------------------
 #p wB97XD/6-31++G(d,p) opt freq
 -------------------------------

 -----
 aaaaa
 -----
 Symbolic Z-matrix:
 Charge =  0 Multiplicity = 1

 SCF Done:  E(RwB97XD) =  -56.5464988594     A.U. after   10 cycles
 Optimization completed.
    -- Stationary point found.
 Normal termination of Gaussian 16 at Wed Dec 29 11:03:38 2021.

 ----------------------------------------------------------------------
 #P Geom=AllCheck Guess=TCheck SCRF=Check GenChk RwB97XD/6-31++G(d,p) F
 req
 ----------------------------------------------------------------------

 Structure from the checkpoint file:  "Am.chk"
 -----
 aaaaa
 -----
 Charge =  0 Multiplicity = 1

                         Standard orientation:
 ---------------------------------------------------------------------
 Center     Atomic      Atomic             Coordinates (Angstroms)
 Number     Number       Type             X           Y           Z
 ---------------------------------------------------------------------
      1          7           0        0.000000    0.107030   -0.000000
      2          1           0        0.948400   -0.250070   -0.000000
      3          1           0       -0.474200   -0.249570    0.821500
      4          1           0       -0.474200   -0.249570   -0.821500
 ---------------------------------------------------------------------

 SCF Done:  E(RwB97XD) =  -56.5464988594     A.U. after    1 cycles

 The electronic state is 1-A'.
 Alpha  occ. eigenvalues --  -14.43709  -0.95341  -0.55280  -0.55273  -0.34954
 Alpha virt. eigenvalues --    0.04147   0.07724   0.07725   0.18261   0.21714
 Alpha virt. eigenvalues --    0.23927   0.23929   0.29160   0.29164   0.36733
 Alpha virt. eigenvalues --    0.97058   0.99925   0.99927   1.01580   1.01594

 Mulliken charges:
               1
     1  N   -0.872018
     2  H    0.290650
     3  H    0.290684
     4  H    0.290684
 Sum of Mulliken charges =   0.00000

 Dipole moment (field-independent basis, Debye):
    X=             -0.0003    Y=             -1.7865    Z=              0.0000  Tot=              1.7865
 Quadrupole moment (field-independent basis, Debye-Ang):
   XX=             -6.1876   YY=             -9.7059   ZZ=             -6.1862
   XY=             -0.0013   XZ=              0.0000   YZ=             -0.0000

  Exact polarizability:  10.465   0.001  11.705   0.000   0.000  10.466
 Approx polarizability:   9.930  -0.001   9.353  -0.000   0.000   9.932

                      1                      2                      3
                     A'                     A'                     A"
 Frequencies --    999.4454              1680.2958              1680.8100
 Red. masses --      1.1838                 1.0685                 1.0685
 Frc consts  --      0.6967                 1.7774                 1.7785
 IR Inten    --    254.5626                31.6293                31.5095

                      4                      5                      6
                     A'                     A"                     A'
 Frequencies --   3533.6062              3686.3584              3686.7583
 Red. masses --      1.0243                 1.0918                 1.0918
 Frc consts  --      7.5359                 8.7415                 8.7433
 IR Inten    --      1.2851                 4.6206                 4.5867

 - Thermochemistry -
 -------------------
 Temperature   298.150 Kelvin.  Pressure   1.00000 Atm.
 Atom     1 has atomic number  7 and mass  14.00307

 Molecular mass:    17.02655 amu.
 Principal axes and moments of inertia in atomic units:
                           1         2         3
     Eigenvalues --     5.98600   5.98791   9.71343
           X            0.00000   1.00000   0.00046
           Y            0.00000  -0.00046   1.00000
           Z            1.00000  -0.00000   0.00000
 This molecule is an asymmetric top.
 Rotational symmetry number  1.
 Rotational temperatures (Kelvin)     14.46942    14.46481     8.91692
 Rotational constants (GHZ):         301.49381   301.39769   185.79853
 Zero-point vibrational energy      91318.6 (Joules/Mol)
                                   21.82566 (Kcal/Mol)
 Vibrational temperatures:   1437.98  2417.57  2418.31  5084.07  5303.85
          (Kelvin)           5304.42

 Zero-point correction=                           0.034781 (Hartree/Particle)
 Thermal correction to Energy=                    0.037655
 Thermal correction to Enthalpy=                  0.038600
 Thermal correction to Gibbs Free Energy=         0.015716
 Sum of electronic and zero-point Energies=            -56.511717
 Sum of electronic and thermal Energies=               -56.508843
 Sum of electronic and thermal Enthalpies=             -56.507899
 Sum of electronic and thermal Free Energies=          -56.530783

                     E (Thermal)             CV                S
                      KCal/Mol        Cal/Mol-Kelvin    Cal/Mol-Kelvin
 Total                   23.629              6.418             48.164
 Electronic               0.000              0.000              0.000
 Translational            0.889              2.981             34.441
 Rotational               0.889              2.981             13.618
 Vibrational             21.852              0.456              0.105

 Optimization completed.
    -- Stationary point found.
 Normal termination of Gaussian 16 at Wed Dec 29 11:03:45 2021.
