 Gaussian 16, Revision A.03,
 Gaussian 16:  ES64L-G16RevA.03 25-Dec-2016

 -------------------------------
 #p wB97XD/6-31++G(d,p) opt freq
 -------------------------------

 -----
 aaaaa
 -----
 Symbolic Z-matrix:
 Charge =  0 Multiplicity = 1

 SCF Done:  E(RwB97XD) =  -135.134438695     A.U. after   12 cycles
 SCF Done:  E(RwB97XD) =  -135.134502274     A.U. after   10 cycles
 SCF Done:  E(RwB97XD) =  -135.134506419     A.U. after    9 cycles
 SCF Done:  E(RwB97XD) =  -135.134507195     A.U. after    8 cycles
 SCF Done:  E(RwB97XD) =  -135.134507299     A.U. after    8 cycles
 Optimization completed.
    -- Stationary point found.
 Normal termination of Gaussian 16 at Wed Dec 29 11:02:01 2021.

 ----------------------------------------------------------------------
 #P Geom=AllCheck Guess=TCheck SCRF=Check GenChk RwB97XD/6-31++G(d,p) F
 req
 ----------------------------------------------------------------------

 Structure from the checkpoint file:  "DMA.chk"
 -----
 aaaaa
 -----
 Charge =  0 Multiplicity = 1

                         Standard orientation:
 ---------------------------------------------------------------------
 Center     Atomic      Atomic             Coordinates (Angstroms)
 Number     Number       Type             X           Y           Z
 ---------------------------------------------------------------------
      1          7           0        0.000000    0.562243   -0.146879
      2          6           0        1.210744   -0.222499    0.020329
      3          6           0       -1.210744   -0.222499    0.020329
      4          1           0        0.000000    1.340270    0.502495
      5          1           0        1.270583   -0.969284   -0.778937
      6          1           0        2.086897    0.425824   -0.064932
      7          1           0        1.264531   -0.759531    0.984723
      8          1           0       -1.270583   -0.969284   -0.778937
      9          1           0       -1.264531   -0.759530    0.984723
     10          1           0       -2.086897    0.425824   -0.064932
 ---------------------------------------------------------------------

 SCF Done:  E(RwB97XD) =  -135.134507299     A.U. after    1 cycles

 The electronic state is 1-A.
 Alpha  occ. eigenvalues --  -14.44009 -10.31243 -10.31242  -1.00111  -0.79833
 Alpha  occ. eigenvalues --   -0.72253  -0.57778  -0.53008  -0.52101  -0.47012
 Alpha  occ. eigenvalues --   -0.44797  -0.44480  -0.30272
 Alpha virt. eigenvalues --    0.04220   0.06009   0.06453   0.07644   0.09361
 Alpha virt. eigenvalues --    0.09391   0.10629   0.12919   0.15732   0.16039
 Alpha virt. eigenvalues --    0.17122   0.19247   0.19253   0.20283   0.22429

 Mulliken charges:
               1
     1  N   -0.365102
     2  C   -0.397444
     3  C   -0.397444
     4  H    0.295999
     5  H    0.153147
     6  H    0.152328
     7  H    0.126521
     8  H    0.153147
     9  H    0.126521
    10  H    0.152329
 Sum of Mulliken charges =  -0.00000

 Dipole moment (field-independent basis, Debye):
    X=              0.0000    Y=             -0.2340    Z=              1.0967  Tot=              1.1214
 Quadrupole moment (field-independent basis, Debye-Ang):
   XX=            -19.6243   YY=            -20.6333   ZZ=            -22.0343
   XY=              0.0000   XZ=              0.0000   YZ=              2.2861

  Exact polarizability:  37.690  -0.000  34.092  -0.000  -1.256  32.820
 Approx polarizability:  33.908  -0.000  34.512  -0.000  -0.481  33.196

                      1                      2                      3
                      A                      A                      A
 Frequencies --    233.5267               274.4638               395.0475
 Red. masses --      1.0330                 1.2046                 2.1780
 Frc consts  --      0.0332                 0.0535                 0.2003
 IR Inten    --      0.1619                 3.0775                 6.8308

                      4                      5                      6
                      A                      A                      A
 Frequencies --    778.3131               966.4424              1047.9142
 Red. masses --      1.2268                 2.4232                 1.1727
 Frc consts  --      0.4379                 1.3335                 0.7588
 IR Inten    --    131.5140                 7.7440                 8.7523

                      7                      8                      9
                      A                      A                      A
 Frequencies --   1113.7472              1195.8585              1212.0436
 Red. masses --      1.2655                 1.4698                 3.7300
 Frc consts  --      0.9249                 1.2384                 3.2285
 IR Inten    --      0.3371                 8.1065                30.6642

                     10                     11                     12
                      A                      A                      A
 Frequencies --   1276.9754              1453.6553              1483.4198
 Red. masses --      1.7338                 1.1697                 1.1831
 Frc consts  --      1.6658                 1.4562                 1.5339
 IR Inten    --      0.1354                 0.0273                 2.1841

                     13                     14                     15
                      A                      A                      A
 Frequencies --   1487.1357              1500.2655              1509.4570
 Red. masses --      1.1380                 1.0783                 1.0624
 Frc consts  --      1.4828                 1.4299                 1.4262
 IR Inten    --      8.5943                 2.0675                13.6380

                     16                     17                     18
                      A                      A                      A
 Frequencies --   1526.8889              1527.9677              2961.3949
 Red. masses --      1.0395                 1.0924                 1.0568
 Frc consts  --      1.4279                 1.5026                 5.4605
 IR Inten    --      3.3580                18.8555                55.9732

                     19                     20                     21
                      A                      A                      A
 Frequencies --   2963.6562              3083.9747              3086.3745
 Red. masses --      1.0582                 1.0762                 1.0787
 Frc consts  --      5.4759                 6.0307                 6.0543
 IR Inten    --    167.2170                56.3751                22.9774

                     22                     23                     24
                      A                      A                      A
 Frequencies --   3141.7807              3142.3622              3599.6400
 Red. masses --      1.1020                 1.1012                 1.0750
 Frc consts  --      6.4087                 6.4067                 8.2068
 IR Inten    --     27.0485                36.6434                 0.4886

 - Thermochemistry -
 -------------------
 Temperature   298.150 Kelvin.  Pressure   1.00000 Atm.
 Atom     1 has atomic number  7 and mass  14.00307

 Molecular mass:    45.05785 amu.
 Principal axes and moments of inertia in atomic units:
                           1         2         3
     Eigenvalues --    51.96293 193.28292 218.90912
           X            1.00000   0.00000  -0.00000
           Y           -0.00000   0.99640   0.08474
           Z            0.00000  -0.08474   0.99640
 This molecule is an asymmetric top.
 Rotational symmetry number  1.
 Rotational temperatures (Kelvin)      1.66684     0.44812     0.39566
 Rotational constants (GHZ):          34.73132     9.33730     8.24425
 Zero-point vibrational energy     245009.0 (Joules/Mol)
                                   58.55856 (Kcal/Mol)
 Warning -- explicit consideration of   3 degrees of freedom as
           vibrations may cause significant error
 Vibrational temperatures:    335.99   394.89   568.39  1119.82  1390.50
          (Kelvin)           1507.71  1602.43  1720.57  1743.86  1837.28
                             2091.49  2134.31  2139.66  2158.55  2171.77
                             2196.85  2198.40  4260.79  4264.04  4437.15
                             4440.60  4520.32  4521.16  5179.08

 Zero-point correction=                           0.093319 (Hartree/Particle)
 Thermal correction to Energy=                    0.097690
 Thermal correction to Enthalpy=                  0.098634
 Thermal correction to Gibbs Free Energy=         0.067884
 Sum of electronic and zero-point Energies=           -135.041188
 Sum of electronic and thermal Energies=              -135.036817
 Sum of electronic and thermal Enthalpies=            -135.035873
 Sum of electronic and thermal Free Energies=         -135.066623

                     E (Thermal)             CV                S
                      KCal/Mol        Cal/Mol-Kelvin    Cal/Mol-Kelvin
 Total                   61.301             13.746             64.719
 Electronic               0.000              0.000              0.000
 Translational            0.889              2.981             37.342
 Rotational               0.889              2.981             22.313
 Vibrational             59.524              7.784              5.064
 Vibration     1          0.654              1.790              1.852
 Vibration     2          0.677              1.721              1.568
 Vibration     3          0.762              1.481              0.981

 Optimization completed.
    -- Stationary point found.
 Normal termination of Gaussian 16 at Wed Dec 29 11:02:51 2021.
