 Gaussian 16, Revision A.03,
 Gaussian 16:  ES64L-G16RevA.03 25-Dec-2016

 -------------------------------
 #p wB97XD/6-31++G(d,p) opt freq
 -------------------------------

 -----
 aaaaa
 -----
 Symbolic Z-matrix:
 Charge =  0 Multiplicity = 1

 SCF Done:  E(RwB97XD) =  -700.121829910     A.U. after   13 cycles
 SCF Done:  E(RwB97XD) =  -700.125541576     A.U. after   11 cycles
 SCF Done:  E(RwB97XD) =  -700.125995835     A.U. after   10 cycles
 SCF Done:  E(RwB97XD) =  -700.126008875     A.U. after    9 cycles
 SCF Done:  E(RwB97XD) =  -700.126012526     A.U. after    9 cycles
 SCF Done:  E(RwB97XD) =  -700.126013627     A.U. after    9 cycles
 SCF Done:  E(RwB97XD) =  -700.126014951     A.U. after    8 cycles
 SCF Done:  E(RwB97XD) =  -700.126015632     A.U. after    8 cycles
 Optimization completed.
    -- Stationary point found.
 Normal termination of Gaussian 16 at Wed Dec 29 11:04:42 2021.

 ----------------------------------------------------------------------
 #P Geom=AllCheck Guess=TCheck SCRF=Check GenChk RwB97XD/6-31++G(d,p) F
 req
 ----------------------------------------------------------------------

 Structure from the checkpoint file:  "SA.chk"
 -----
 aaaaa
 -----
 Charge =  0 Multiplicity = 1

                         Standard orientation:
 ---------------------------------------------------------------------
 Center     Atomic      Atomic             Coordinates (Angstroms)
 Number     Number       Type             X           Y           Z
 ---------------------------------------------------------------------
      1         16           0       -0.000024    0.000074   -0.162045
      2          8           0        1.049299   -0.673117    0.851656
      3          8           0       -0.645636   -1.094261   -0.832740
      4          8           0       -1.048803    0.672163    0.852937
      5          8           0        0.645110    1.095225   -0.831866
      6          1           0        1.690288   -0.004815    1.135986
      7          1           0       -1.689659    0.003550    1.136835
 ---------------------------------------------------------------------

 SCF Done:  E(RwB97XD) =  -700.126015632     A.U. after    1 cycles

 The electronic state is 1-A.
 Alpha  occ. eigenvalues --  -89.36668 -19.37240 -19.37239 -19.31738 -19.31737
 Alpha  occ. eigenvalues --   -8.34197  -6.29293  -6.29210  -6.29051  -1.32391
 Alpha  occ. eigenvalues --   -1.20168  -1.17984  -1.16560  -0.81118  -0.73634
 Alpha  occ. eigenvalues --   -0.64249  -0.62390  -0.59249  -0.54957  -0.52283
 Alpha  occ. eigenvalues --   -0.49011  -0.48258  -0.44403  -0.44391  -0.42995
 Alpha virt. eigenvalues --    0.02346   0.04905   0.09387   0.10245   0.11616
 Alpha virt. eigenvalues --    0.12837   0.12940   0.13321   0.17009   0.17724
 Alpha virt. eigenvalues --    0.19731   0.23752   0.24069   0.24466   0.25335

 Mulliken charges:
               1
     1  S    1.575495
     2  O   -0.614951
     3  O   -0.581562
     4  O   -0.614978
     5  O   -0.581560
     6  H    0.408781
     7  H    0.408775
 Sum of Mulliken charges =  -0.00000

 Dipole moment (field-independent basis, Debye):
    X=              0.0012    Y=             -0.0020    Z=              3.2705  Tot=              3.2705
 Quadrupole moment (field-independent basis, Debye-Ang):
   XX=            -28.7699   YY=            -41.0945   ZZ=            -34.9600
   XY=              0.7025   XZ=             -0.0011   YZ=             -0.0035

  Exact polarizability:  33.698   2.483  33.709   0.002   0.000  31.929
 Approx polarizability:  36.078   4.982  40.298   0.004   0.001  34.637

                      1                      2                      3
                      A                      A                      A
 Frequencies --    254.9306               320.8678               364.1406
 Red. masses --      1.3634                 1.1207                12.1497
 Frc consts  --      0.0522                 0.0680                 0.9492
 IR Inten    --    102.6511                71.4171                 4.6399

                      4                      5                      6
                      A                      A                      A
 Frequencies --    427.1449               481.8726               530.5731
 Red. masses --      2.8102                 4.8219                13.9336
 Frc consts  --      0.3021                 0.6597                 2.3110
 IR Inten    --     24.5659                49.9642                54.7341

                      7                      8                      9
                      A                      A                      A
 Frequencies --    536.3708               817.7901               872.6359
 Red. masses --     14.7864                14.9495                18.0614
 Frc consts  --      2.5064                 5.8906                 8.1034
 IR Inten    --     32.9929               121.2663               363.2385

                     10                     11                     12
                      A                      A                      A
 Frequencies --   1156.0560              1169.9352              1217.8406
 Red. masses --      1.1225                 1.2853                16.6367
 Frc consts  --      0.8839                 1.0365                14.5378
 IR Inten    --     82.6562                99.7104               191.0591

                     13                     14                     15
                      A                      A                      A
 Frequencies --   1465.0306              3845.5723              3849.6457
 Red. masses --      9.3590                 1.0660                 1.0662
 Frc consts  --     11.8351                 9.2877                 9.3099
 IR Inten    --    330.5126               224.5072                61.3830

 - Thermochemistry -
 -------------------
 Temperature   298.150 Kelvin.  Pressure   1.00000 Atm.
 Atom     1 has atomic number 16 and mass  31.97207

 Molecular mass:    97.96738 amu.
 Principal axes and moments of inertia in atomic units:
                           1         2         3
     Eigenvalues --   362.82390 368.08673 382.45396
           X            0.99995  -0.00951  -0.00013
           Y            0.00951   0.99995  -0.00036
           Z            0.00013   0.00036   1.00000
 This molecule is an asymmetric top.
 Rotational symmetry number  1.
 Rotational temperatures (Kelvin)      0.23872     0.23531     0.22647
 Rotational constants (GHZ):           4.97415     4.90303     4.71885
 Zero-point vibrational energy     103539.2 (Joules/Mol)
                                   24.74647 (Kcal/Mol)
 Warning -- explicit consideration of   7 degrees of freedom as
           vibrations may cause significant error
 Vibrational temperatures:    366.79   461.66   523.92   614.57   693.31
          (Kelvin)            763.38   771.72  1176.62  1255.53  1663.31
                             1683.28  1752.20  2107.85  5532.92  5538.78

 Zero-point correction=                           0.039436 (Hartree/Particle)
 Thermal correction to Energy=                    0.044605
 Thermal correction to Enthalpy=                  0.045549
 Thermal correction to Gibbs Free Energy=         0.011135
 Sum of electronic and zero-point Energies=           -700.086580
 Sum of electronic and thermal Energies=              -700.081411
 Sum of electronic and thermal Enthalpies=            -700.080466
 Sum of electronic and thermal Free Energies=         -700.114881

                     E (Thermal)             CV                S
                      KCal/Mol        Cal/Mol-Kelvin    Cal/Mol-Kelvin
 Total                   27.990             17.848             72.431
 Electronic               0.000              0.000              0.000
 Translational            0.889              2.981             39.657
 Rotational               0.889              2.981             25.438
 Vibrational             26.213             11.887              7.336
 Vibration     1          0.665              1.754              1.696
 Vibration     2          0.706              1.634              1.306
 Vibration     3          0.738              1.546              1.104
 Vibration     4          0.789              1.411              0.868
 Vibration     5          0.838              1.290              0.705
 Vibration     6          0.886              1.182              0.586
 Vibration     7          0.891              1.170              0.573

 Optimization completed.
    -- Stationary point found.
 Normal termination of Gaussian 16 at Wed Dec 29 11:05:21 2021.
