 Gaussian 16, Revision A.03,
 Gaussian 16:  ES64L-G16RevA.03 25-Dec-2016

 -------------------------------
 #p wB97XD/6-31++G(d,p) opt freq
 -------------------------------

 -----
 aaaaa
 -----
 Symbolic Z-matrix:
 Charge =  0 Multiplicity = 1

 SCF Done:  E(RwB97XD) =  -76.4094364557     A.U. after    9 cycles
 SCF Done:  E(RwB97XD) =  -76.4096217768     A.U. after    8 cycles
 SCF Done:  E(RwB97XD) =  -76.4096259966     A.U. after    8 cycles
 Optimization completed.
    -- Stationary point found.
 Normal termination of Gaussian 16 at Wed Dec 29 11:03:40 2021.

 ----------------------------------------------------------------------
 #P Geom=AllCheck Guess=TCheck SCRF=Check GenChk RwB97XD/6-31++G(d,p) F
 req
 ----------------------------------------------------------------------

 Structure from the checkpoint file:  "W.chk"
 -----
 aaaaa
 -----
 Charge =  0 Multiplicity = 1

                         Standard orientation:
 ---------------------------------------------------------------------
 Center     Atomic      Atomic             Coordinates (Angstroms)
 Number     Number       Type             X           Y           Z
 ---------------------------------------------------------------------
      1          8           0        0.000000    0.000000    0.115696
      2          1           0       -0.000000    0.766554   -0.462783
      3          1           0       -0.000000   -0.766554   -0.462783
 ---------------------------------------------------------------------

 SCF Done:  E(RwB97XD) =  -76.4096259966     A.U. after    1 cycles

 The electronic state is 1-A1.
 Alpha  occ. eigenvalues --  -19.28769  -1.12127  -0.62917  -0.47905  -0.40538
 Alpha virt. eigenvalues --    0.03869   0.07423   0.21923   0.23733   0.24259
 Alpha virt. eigenvalues --    0.28516   0.30058   0.35561   1.01354   1.09857
 Alpha virt. eigenvalues --    1.20498   1.21699   1.25147   1.45072   1.59163

 Mulliken charges:
               1
     1  O   -0.705607
     2  H    0.352804
     3  H    0.352804
 Sum of Mulliken charges =   0.00000

 Dipole moment (field-independent basis, Debye):
    X=             -0.0000    Y=             -0.0000    Z=             -2.2145  Tot=              2.2145
 Quadrupole moment (field-independent basis, Debye-Ang):
   XX=             -7.7783   YY=             -4.2864   ZZ=             -6.4426
   XY=              0.0000   XZ=              0.0000   YZ=             -0.0000

  Exact polarizability:   6.343   0.000   7.874   0.000  -0.000   6.448
 Approx polarizability:   5.161   0.000   7.709   0.000   0.000   5.932

                      1                      2                      3
                     A1                     A1                     B2
 Frequencies --   1615.2541              3899.2734              4025.9722
 Red. masses --      1.0836                 1.0443                 1.0833
 Frc consts  --      1.6657                 9.3553                10.3449
 IR Inten    --     92.7921                 8.2866                61.9110

 - Thermochemistry -
 -------------------
 Temperature   298.150 Kelvin.  Pressure   1.00000 Atm.
 Atom     1 has atomic number  8 and mass  15.99491

 Molecular mass:    18.01056 amu.
 Principal axes and moments of inertia in atomic units:
                           1         2         3
     Eigenvalues --     2.13915   4.22959   6.36874
           X            0.00000   0.00000   1.00000
           Y            1.00000   0.00000   0.00000
           Z            0.00000   1.00000   0.00000
 This molecule is an asymmetric top.
 Rotational symmetry number  2.
 Rotational temperatures (Kelvin)     40.48979    20.47810    13.59985
 Rotational constants (GHZ):         843.67036   426.69436   283.37483
 Zero-point vibrational energy      57064.9 (Joules/Mol)
                                   13.63883 (Kcal/Mol)
 Vibrational temperatures:   2323.99  5610.18  5792.48
          (Kelvin)

 Zero-point correction=                           0.021735 (Hartree/Particle)
 Thermal correction to Energy=                    0.024570
 Thermal correction to Enthalpy=                  0.025515
 Thermal correction to Gibbs Free Energy=         0.004101
 Sum of electronic and zero-point Energies=            -76.387891
 Sum of electronic and thermal Energies=               -76.385056
 Sum of electronic and thermal Enthalpies=             -76.384111
 Sum of electronic and thermal Free Energies=          -76.405525

                     E (Thermal)             CV                S
                      KCal/Mol        Cal/Mol-Kelvin    Cal/Mol-Kelvin
 Total                   15.418              6.011             45.069
 Electronic               0.000              0.000              0.000
 Translational            0.889              2.981             34.608
 Rotational               0.889              2.981             10.453
 Vibrational             13.641              0.050              0.007

 Optimization completed.
    -- Stationary point found.
 Normal termination of Gaussian 16 at Wed Dec 29 11:03:44 2021.
